45
Properties=species:S:1:pos:R:3:forces:R:3 generated=T by=T VMD=T energy=-242.20201110839844 free_energy=-242.20201110839844 stress="2.2608530159118345e-08 8.880703461500161e-08 -3.284154614924262e-10 8.880703461500161e-08 1.3647721175402694e-07 2.0347685847355024e-07 -3.284154614924262e-10 2.0347685847355024e-07 2.3363989498648152e-07" pbc="F F F"
C        0.37300000       1.38700000       1.55400000      -0.01777896      -0.24549203       0.21289906
B       -0.45800000       1.49300000       3.03500000      -0.21158704       0.29673979      -0.03046993
B       -1.31000000      -0.06100000       3.14500000      -0.17691763      -0.06224363      -0.06144942
B       -0.08000000      -1.35500000       3.14900000      -0.11669512      -0.17796822      -0.08728646
B        0.24300000       0.18700000       4.02400000      -0.07739893      -0.06863832      -0.40534848
B        1.28300000       1.16800000       2.98900000       0.26883876       0.27648517       0.19725671
C        1.47500000       0.23500000       1.56400000      -0.06765772       0.08995229       0.24099128
B       -1.20000000       0.77000000       1.57900000      -0.25378329       0.02569911      -0.10596976
B       -0.99000000      -0.99800000       1.63600000      -0.10072213      -0.02860293       0.20380154
B        0.77900000      -1.29700000       1.59000000       0.13609739      -0.34676772      -0.05303356
B        1.52200000      -0.58400000       3.05100000       0.28837788      -0.18756077      -0.07302691
C        1.14300000       0.92400000      -1.55300000       0.20044251       0.03715765      -0.26531699
B        1.64100000       0.23600000      -3.03000000      -0.36279720       0.03084290       0.06979094
B        0.69900000      -1.26900000      -3.12900000      -0.00735117       0.20258719       0.09974167
B       -1.02800000      -0.82800000      -3.13800000       0.10722646       0.18082809       0.06385483
B        0.16300000       0.19900000      -4.02000000       0.01002888       0.11869918       0.37930518
B        0.50800000       1.59700000      -2.99700000      -0.07389651      -0.36711532      -0.19056901
C       -0.40000000       1.32300000      -1.56800000      -0.09180753       0.15117109      -0.28597945
B        1.36600000      -0.74900000      -1.56900000      -0.21883588       0.29273731       0.21566251
B       -0.27500000      -1.43300000      -1.61500000       0.02139056       0.13354042      -0.21367864
B       -1.39200000      -0.03400000      -1.58800000       0.13812521      -0.01704615      -0.03509535
B       -1.13600000       0.94700000      -3.05600000       0.30126682      -0.13541919       0.03606773
Co       0.00000000       0.00000000       0.00000000       0.21486372      -0.12005270       0.06592502
H        0.64900000       2.32700000       1.06700000       0.19068989      -0.01753879      -0.12920147
H       -0.81900000       2.55400000       3.41900000       0.07772848      -0.11640225       0.04381204
H       -2.34300000      -0.15400000       3.73300000       0.03587641       0.01905569       0.00826334
H       -0.22900000      -2.38100000       3.73600000       0.02144297       0.03851894       0.01804644
H        0.31700000       0.26600000       5.20700000       0.03610926       0.03276777       0.04568222
H        2.11100000       1.96300000       3.26400000      -0.09775752      -0.09213290       0.03401989
H        2.42800000       0.45700000       1.07500000       0.01722635       0.16300923      -0.11233577
H       -2.08100000       1.40400000       1.10000000       0.13704197      -0.09454506      -0.00239252
H       -1.80900000      -1.78700000       1.27700000       0.07268544       0.05544900      -0.06215622
H        1.35800000      -2.22400000       1.13100000      -0.09028167       0.14155690      -0.10696446
H        2.55800000      -0.99800000       3.45200000      -0.08818100       0.07349572       0.03483512
H        1.83000000       1.62500000      -1.06900000       0.07766753      -0.16486683       0.12942080
H        2.74500000       0.43400000      -3.41300000       0.12373021      -0.01442944      -0.04209438
H        1.12700000      -2.22100000      -3.70500000      -0.00605379      -0.03917651      -0.00873530
H       -1.85200000      -1.46100000      -3.72100000      -0.02309200      -0.03848992      -0.01221234
H        0.19500000       0.29200000      -5.20500000      -0.01199643      -0.04809712      -0.02196960
H        0.79700000       2.70500000      -3.28300000       0.03483355       0.13253474      -0.03525414
H       -0.67400000       2.26700000      -1.09000000      -0.16044365      -0.02580013       0.09149317
H        2.34800000      -1.20100000      -1.08200000       0.11106291      -0.06524659       0.03033265
H       -0.55700000      -2.53100000      -1.24700000      -0.01809878      -0.08001969       0.07658929
H       -2.48700000       0.02700000      -1.13800000      -0.23072062       0.00929517       0.08563167
H       -2.00400000       1.64400000      -3.46200000      -0.11889870       0.05152890      -0.04288299
