45
Properties=species:S:1:pos:R:3:forces:R:3 generated=T by=T VMD=T energy=-242.1136474609375 stress="2.273193366875148e-08 1.2344729327651294e-07 -6.183364575917949e-08 1.2344729327651294e-07 1.640680267200878e-07 4.874246783970193e-08 -6.183364575917949e-08 4.874246783970193e-08 3.0445428933489893e-07" free_energy=-242.1136474609375 pbc="F F F"
C        0.37300000       1.38700000       1.55400000      -0.01741780       0.15750608       0.30772209
B       -0.45800000       1.49300000       3.03500000       0.21447733      -0.31373942      -0.10079714
B       -1.31000000      -0.06100000       3.14500000       0.17409591       0.08149712      -0.05262694
B       -0.08000000      -1.35500000       3.14900000       0.12224190       0.18731815      -0.05763339
B        0.24300000       0.18700000       4.02400000       0.07403280       0.07159401      -0.38966924
B        1.28300000       1.16800000       2.98900000      -0.29328930      -0.29456657       0.13868742
C        1.47500000       0.23500000       1.56400000       0.04865038      -0.08582138       0.31657273
B       -1.20000000       0.77000000       1.57900000       0.26760870      -0.03231162      -0.01974237
B       -0.99000000      -0.99800000       1.63600000       0.11505842       0.08776668      -0.00641829
B        0.77900000      -1.29700000       1.59000000      -0.11996487       0.36925501      -0.15009616
B        1.52200000      -0.58400000       3.05100000      -0.29184482       0.20046155      -0.10054430
C        1.14300000       0.92400000      -1.55300000       0.11917702      -0.01479292      -0.36702675
B        1.64100000       0.23600000      -3.03000000      -0.37466252       0.02845455       0.13596368
B        0.69900000      -1.26900000      -3.12900000       0.00751098       0.20606470       0.09780565
B       -1.02800000      -0.82800000      -3.13800000       0.11223418       0.18901190       0.02965927
B        0.16300000       0.19900000      -4.02000000       0.00940206       0.11963594       0.36395371
B        0.50800000       1.59700000      -2.99700000      -0.07861308      -0.39794254      -0.12575406
C       -0.40000000       1.32300000      -1.56800000      -0.06593113       0.12640430      -0.37292555
B        1.36600000      -0.74900000      -1.56900000      -0.17078227       0.27471644       0.07061221
B       -0.27500000      -1.43300000      -1.61500000       0.04271279       0.14803788      -0.04489803
B       -1.39200000      -0.03400000      -1.58800000       0.20768154       0.00778925       0.12481645
B       -1.13600000       0.94700000      -3.05600000       0.31628150      -0.12993774       0.06324312
Co       0.00000000       0.00000000       0.00000000       0.04453404      -0.60780680       0.12098941
H        0.64900000       2.32700000       1.06700000      -0.15675822       0.08116962      -0.06720848
H       -0.81900000       2.55400000       3.41900000      -0.07424937       0.10862726       0.04213154
H       -2.34300000      -0.15400000       3.73300000      -0.03633809      -0.01958938       0.01283237
H       -0.22900000      -2.38100000       3.73600000      -0.02131622      -0.05062498       0.03062971
H        0.31700000       0.26600000       5.20700000      -0.03555511      -0.03528351       0.03716037
H        2.11100000       1.96300000       3.26400000       0.09704641       0.08890766       0.03378691
H        2.42800000       0.45700000       1.07500000       0.02476783      -0.17793262      -0.08426896
H       -2.08100000       1.40400000       1.10000000      -0.17571935       0.09477634      -0.07553612
H       -1.80900000      -1.78700000       1.27700000      -0.04993260      -0.05636793      -0.02661520
H        1.35800000      -2.22400000       1.13100000       0.09641849      -0.12162963      -0.08568062
H        2.55800000      -0.99800000       3.45200000       0.08734693      -0.07405140       0.03698564
H        1.83000000       1.62500000      -1.06900000       0.12259654      -0.11528391       0.06576717
H        2.74500000       0.43400000      -3.41300000       0.11521155      -0.01607165      -0.04137847
H        1.12700000      -2.22100000      -3.70500000      -0.00583827      -0.04118773      -0.01313790
H       -1.85200000      -1.46100000      -3.72100000      -0.03377534      -0.04518111      -0.02652058
H        0.19500000       0.29200000      -5.20500000      -0.01383252      -0.04889545      -0.01522456
H        0.79700000       2.70500000      -3.28300000       0.03152629       0.12895674      -0.03640099
H       -0.67400000       2.26700000      -1.09000000      -0.18780425       0.00646980       0.06512733
H        2.34800000      -1.20100000      -1.08200000       0.11950044      -0.09418698       0.09411457
H       -0.55700000      -2.53100000      -1.24700000      -0.02295837      -0.06272100       0.03737380
H       -2.48700000       0.02700000      -1.13800000      -0.22486022       0.02125376       0.07997417
H       -2.00400000       1.64400000      -3.46200000      -0.11866957       0.05025154      -0.04580528
45
Properties=species:S:1:pos:R:3:forces:R:3 generated=T by=T VMD=T energy=-242.1640625 stress="-2.3052512787558044e-08 -5.5432607837246906e-08 2.2125716370169357e-08 -5.5432607837246906e-08 2.251969419830857e-07 7.747425456727797e-08 2.2125716370169357e-08 7.747425456727797e-08 2.919641701737419e-07" free_energy=-242.1640625 pbc="F F F"
C       -1.38700000       0.37300000       1.55400000      -0.22063141       0.02150483       0.29061818
B       -1.49300000      -0.45800000       3.03500000       0.29922283       0.21263249      -0.05546111
B        0.06100000      -1.31000000       3.14500000      -0.07160950       0.18115148      -0.04027799
B        1.35500000      -0.08000000       3.14900000      -0.17915155       0.12935030      -0.07893518
B       -0.18700000       0.24300000       4.02400000      -0.07081047       0.07675990      -0.39627057
B       -1.16800000       1.28300000       2.98900000       0.29528528      -0.27990925       0.15023074
C       -0.23500000       1.47500000       1.56400000       0.08132172       0.01395756       0.31149971
B       -0.77000000      -1.20000000       1.57900000       0.07427338       0.32163477      -0.19556075
B        0.99800000      -0.99000000       1.63600000      -0.04458702       0.09418544       0.07775041
B        1.29700000       0.77900000       1.59000000      -0.34770361      -0.09751382       0.02144480
B        0.58400000       1.52200000       3.05100000      -0.19380926      -0.29704422      -0.11694611
C        1.14300000       0.92400000      -1.55300000       0.17525341       0.03517693      -0.31534123
B        1.64100000       0.23600000      -3.03000000      -0.36011830       0.02742990       0.08961181
B        0.69900000      -1.26900000      -3.12900000      -0.00279917       0.20662743       0.08064045
B       -1.02800000      -0.82800000      -3.13800000       0.10039318       0.18908340       0.04710467
B        0.16300000       0.19900000      -4.02000000       0.00903133       0.11786966       0.36357802
B        0.50800000       1.59700000      -2.99700000      -0.08505316      -0.38244116      -0.14716330
C       -0.40000000       1.32300000      -1.56800000      -0.06668033       0.10114980      -0.32880366
B        1.36600000      -0.74900000      -1.56900000      -0.24971065       0.31313998       0.27060345
B       -0.27500000      -1.43300000      -1.61500000       0.03078993       0.15369096      -0.06282373
B       -1.39200000      -0.03400000      -1.58800000       0.16139491       0.01099680      -0.04503962
B       -1.13600000       0.94700000      -3.05600000       0.31058425      -0.14085081       0.08071082
Co       0.00000000       0.00000000       0.00000000       0.38671529      -0.45301652      -0.01413795
H       -2.32700000       0.64900000       1.06700000      -0.04656772      -0.19641286      -0.09558663
H       -2.55400000      -0.81900000       3.41900000      -0.11205044      -0.07624016       0.04556657
H        0.15400000      -2.34300000       3.73300000       0.01905419      -0.04107800       0.01497774
H        2.38100000      -0.22900000       3.73600000       0.04155381      -0.02196515       0.02400800
H       -0.26600000       0.31700000       5.20700000       0.03367706      -0.03682329       0.03873274
H       -1.96300000       2.11100000       3.26400000      -0.08675045       0.09426138       0.03385730
H       -0.45700000       2.42800000       1.07500000       0.13960230       0.02918224      -0.04827848
H       -1.40400000      -2.08100000       1.10000000      -0.09192012      -0.17144690      -0.06933968
H        1.78700000      -1.80900000       1.27700000       0.04716343      -0.04074848      -0.04746207
H        2.22400000       1.35800000       1.13100000       0.14623336       0.09029330      -0.09934770
H        0.99800000       2.55800000       3.45200000       0.07147212       0.08143066       0.03210217
H        1.83000000       1.62500000      -1.06900000       0.09872735      -0.17288119       0.09489575
H        2.74500000       0.43400000      -3.41300000       0.12146990      -0.01443769      -0.04486284
H        1.12700000      -2.22100000      -3.70500000      -0.00244535      -0.04480085      -0.01550411
H       -1.85200000      -1.46100000      -3.72100000      -0.02732937      -0.04118063      -0.02051470
H        0.19500000       0.29200000      -5.20500000      -0.01199654      -0.04846579      -0.01595539
H        0.79700000       2.70500000      -3.28300000       0.03211830       0.12898406      -0.03710108
H       -0.67400000       2.26700000      -1.09000000      -0.14722922       0.01717100       0.01621755
H        2.34800000      -1.20100000      -1.08200000       0.11695736      -0.08927085       0.09475132
H       -0.55700000      -2.53100000      -1.24700000      -0.02309273      -0.05664419       0.06173003
H       -2.48700000       0.02700000      -1.13800000      -0.23507538       0.00732219       0.09192266
H       -2.00400000       1.64400000      -3.46200000      -0.11517355       0.04818574      -0.04184139
45
Properties=species:S:1:pos:R:3:forces:R:3 generated=T by=T VMD=T energy=-242.20201110839844 stress="2.2608530159118345e-08 8.880703461500161e-08 -3.284154614924262e-10 8.880703461500161e-08 1.3647721175402694e-07 2.0347685847355024e-07 -3.284154614924262e-10 2.0347685847355024e-07 2.3363989498648152e-07" free_energy=-242.20201110839844 pbc="F F F"
C       -0.37300000      -1.38700000       1.55400000      -0.01777896      -0.24549203       0.21289906
B        0.45800000      -1.49300000       3.03500000      -0.21158704       0.29673979      -0.03046993
B        1.31000000       0.06100000       3.14500000      -0.17691763      -0.06224363      -0.06144942
B        0.08000000       1.35500000       3.14900000      -0.11669512      -0.17796822      -0.08728646
B       -0.24300000      -0.18700000       4.02400000      -0.07739893      -0.06863832      -0.40534848
B       -1.28300000      -1.16800000       2.98900000       0.26883876       0.27648517       0.19725671
C       -1.47500000      -0.23500000       1.56400000      -0.06765772       0.08995229       0.24099128
B        1.20000000      -0.77000000       1.57900000      -0.25378329       0.02569911      -0.10596976
B        0.99000000       0.99800000       1.63600000      -0.10072213      -0.02860293       0.20380154
B       -0.77900000       1.29700000       1.59000000       0.13609739      -0.34676772      -0.05303356
B       -1.52200000       0.58400000       3.05100000       0.28837788      -0.18756077      -0.07302691
C        1.14300000       0.92400000      -1.55300000       0.20044251       0.03715765      -0.26531699
B        1.64100000       0.23600000      -3.03000000      -0.36279720       0.03084290       0.06979094
B        0.69900000      -1.26900000      -3.12900000      -0.00735117       0.20258719       0.09974167
B       -1.02800000      -0.82800000      -3.13800000       0.10722646       0.18082809       0.06385483
B        0.16300000       0.19900000      -4.02000000       0.01002888       0.11869918       0.37930518
B        0.50800000       1.59700000      -2.99700000      -0.07389651      -0.36711532      -0.19056901
C       -0.40000000       1.32300000      -1.56800000      -0.09180753       0.15117109      -0.28597945
B        1.36600000      -0.74900000      -1.56900000      -0.21883588       0.29273731       0.21566251
B       -0.27500000      -1.43300000      -1.61500000       0.02139056       0.13354042      -0.21367864
B       -1.39200000      -0.03400000      -1.58800000       0.13812521      -0.01704615      -0.03509535
B       -1.13600000       0.94700000      -3.05600000       0.30126682      -0.13541919       0.03606773
Co       0.00000000       0.00000000       0.00000000       0.21486372      -0.12005270       0.06592502
H       -0.64900000      -2.32700000       1.06700000       0.19068989      -0.01753879      -0.12920147
H        0.81900000      -2.55400000       3.41900000       0.07772848      -0.11640225       0.04381204
H        2.34300000       0.15400000       3.73300000       0.03587641       0.01905569       0.00826334
H        0.22900000       2.38100000       3.73600000       0.02144297       0.03851894       0.01804644
H       -0.31700000      -0.26600000       5.20700000       0.03610926       0.03276777       0.04568222
H       -2.11100000      -1.96300000       3.26400000      -0.09775752      -0.09213290       0.03401989
H       -2.42800000      -0.45700000       1.07500000       0.01722635       0.16300923      -0.11233577
H        2.08100000      -1.40400000       1.10000000       0.13704197      -0.09454506      -0.00239252
H        1.80900000       1.78700000       1.27700000       0.07268544       0.05544900      -0.06215622
H       -1.35800000       2.22400000       1.13100000      -0.09028167       0.14155690      -0.10696446
H       -2.55800000       0.99800000       3.45200000      -0.08818100       0.07349572       0.03483512
H        1.83000000       1.62500000      -1.06900000       0.07766753      -0.16486683       0.12942080
H        2.74500000       0.43400000      -3.41300000       0.12373021      -0.01442944      -0.04209438
H        1.12700000      -2.22100000      -3.70500000      -0.00605379      -0.03917651      -0.00873530
H       -1.85200000      -1.46100000      -3.72100000      -0.02309200      -0.03848992      -0.01221234
H        0.19500000       0.29200000      -5.20500000      -0.01199643      -0.04809712      -0.02196960
H        0.79700000       2.70500000      -3.28300000       0.03483355       0.13253474      -0.03525414
H       -0.67400000       2.26700000      -1.09000000      -0.16044365      -0.02580013       0.09149317
H        2.34800000      -1.20100000      -1.08200000       0.11106291      -0.06524659       0.03033265
H       -0.55700000      -2.53100000      -1.24700000      -0.01809878      -0.08001969       0.07658929
H       -2.48700000       0.02700000      -1.13800000      -0.23072062       0.00929517       0.08563167
H       -2.00400000       1.64400000      -3.46200000      -0.11889870       0.05152890      -0.04288299
45
Properties=species:S:1:pos:R:3:forces:R:3 generated=T by=T VMD=T energy=-242.18124389648438 stress="-7.878853125475871e-09 -3.46532509354347e-08 -1.031986656130357e-07 -3.46532509354347e-08 1.402705009923011e-07 1.5470193659439246e-07 -1.031986656130357e-07 1.5470193659439246e-07 2.2974546709519927e-07" free_energy=-242.18124389648438 pbc="F F F"
C        1.38700000      -0.37300000       1.55400000       0.22452450      -0.00350600       0.25491235
B        1.49300000       0.45800000       3.03500000      -0.30306235      -0.19864774      -0.06600303
B       -0.06100000       1.31000000       3.14500000       0.07683158      -0.16876638      -0.07175923
B       -1.35500000       0.08000000       3.14900000       0.18881732      -0.11412109      -0.06641267
B        0.18700000      -0.24300000       4.02400000       0.06967381      -0.07328701      -0.39975470
B        1.16800000      -1.28300000       2.98900000      -0.27302694       0.26852849       0.18427931
C        0.23500000      -1.47500000       1.56400000      -0.09679478      -0.07805029       0.24341103
B        0.77000000       1.20000000       1.57900000      -0.04796740      -0.23134492       0.04276295
B       -0.99800000       0.99000000       1.63600000       0.06325105      -0.06954569       0.14266001
B       -1.29700000      -0.77900000       1.59000000       0.40999311       0.13273489      -0.20266643
B       -0.58400000      -1.52200000       3.05100000       0.19422989       0.28947914      -0.06513338
C        1.14300000       0.92400000      -1.55300000       0.16200796       0.02393109      -0.32632408
B        1.64100000       0.23600000      -3.03000000      -0.36093420       0.02303882       0.10400605
B        0.69900000      -1.26900000      -3.12900000       0.00718243       0.20142736       0.11627428
B       -1.02800000      -0.82800000      -3.13800000       0.11942421       0.18362394       0.04828043
B        0.16300000       0.19900000      -4.02000000       0.01193905       0.11982492       0.37992024
B        0.50800000       1.59700000      -2.99700000      -0.07084429      -0.37053058      -0.17231813
C       -0.40000000       1.32300000      -1.56800000      -0.08380134       0.15980217      -0.34179792
B        1.36600000      -0.74900000      -1.56900000      -0.21311791       0.26897967       0.04859181
B       -0.27500000      -1.43300000      -1.61500000       0.05864886       0.09373456      -0.22150108
B       -1.39200000      -0.03400000      -1.58800000       0.20018746       0.03019363       0.13602255
B       -1.13600000       0.94700000      -3.05600000       0.30941543      -0.13068458       0.02406951
Co       0.00000000       0.00000000       0.00000000      -0.19357541      -0.37756401       0.17716935
H        2.32700000      -0.64900000       1.06700000       0.02003407       0.15068913      -0.07332402
H        2.55400000       0.81900000       3.41900000       0.11044337       0.07717259       0.04374518
H       -0.15400000       2.34300000       3.73300000      -0.02031731       0.02950205       0.00333916
H       -2.38100000       0.22900000       3.73600000      -0.05038476       0.02116758       0.02860624
H        0.26600000      -0.31700000       5.20700000      -0.03474269       0.03457761       0.04338908
H        1.96300000      -2.11100000       3.26400000       0.08971968      -0.10065171       0.03620969
H        0.45700000      -2.42800000       1.07500000      -0.18079090       0.00617740      -0.12733677
H        1.40400000       2.08100000       1.10000000       0.11651938       0.18642345      -0.05800555
H       -1.78700000       1.80900000       1.27700000      -0.05637706       0.06258193      -0.04884425
H       -2.22400000      -1.35800000       1.13100000      -0.13537818      -0.08550921      -0.09601173
H       -0.99800000      -2.55800000       3.45200000      -0.07665078      -0.09566118       0.03729992
H        1.83000000       1.62500000      -1.06900000       0.07726356      -0.12983020       0.08353540
H        2.74500000       0.43400000      -3.41300000       0.11590698      -0.01773572      -0.04160833
H        1.12700000      -2.22100000      -3.70500000      -0.01113144      -0.03424446      -0.00340970
H       -1.85200000      -1.46100000      -3.72100000      -0.03352644      -0.04442441      -0.02357806
H        0.19500000       0.29200000      -5.20500000      -0.01434231      -0.04801653      -0.02111819
H        0.79700000       2.70500000      -3.28300000       0.03011562       0.13064510      -0.03721306
H       -0.67400000       2.26700000      -1.09000000      -0.18223299      -0.01101588       0.10325140
H        2.34800000      -1.20100000      -1.08200000       0.14675006      -0.09733798       0.07547050
H       -0.55700000      -2.53100000      -1.24700000      -0.01631067      -0.07180209       0.06905175
H       -2.48700000       0.02700000      -1.13800000      -0.22327411       0.00323147       0.08337620
H       -2.00400000       1.64400000      -3.46200000      -0.12429515       0.05481055      -0.04551364
45
Properties=species:S:1:pos:R:3:forces:R:3 generated=T by=T VMD=T energy=-242.1136474609375 stress="2.273193366875148e-08 1.2344729327651294e-07 -6.183364575917949e-08 1.2344729327651294e-07 1.640680267200878e-07 4.874246783970193e-08 -6.183364575917949e-08 4.874246783970193e-08 3.0445428933489893e-07" free_energy=-242.1136474609375 pbc="F F F"
C        0.37300000       1.38700000       1.55400000      -0.01741780       0.15750608       0.30772209
B       -0.45800000       1.49300000       3.03500000       0.21447733      -0.31373942      -0.10079714
B       -1.31000000      -0.06100000       3.14500000       0.17409591       0.08149712      -0.05262694
B       -0.08000000      -1.35500000       3.14900000       0.12224190       0.18731815      -0.05763339
B        0.24300000       0.18700000       4.02400000       0.07403280       0.07159401      -0.38966924
B        1.28300000       1.16800000       2.98900000      -0.29328930      -0.29456657       0.13868742
C        1.47500000       0.23500000       1.56400000       0.04865038      -0.08582138       0.31657273
B       -1.20000000       0.77000000       1.57900000       0.26760870      -0.03231162      -0.01974237
B       -0.99000000      -0.99800000       1.63600000       0.11505842       0.08776668      -0.00641829
B        0.77900000      -1.29700000       1.59000000      -0.11996487       0.36925501      -0.15009616
B        1.52200000      -0.58400000       3.05100000      -0.29184482       0.20046155      -0.10054430
C        1.14300000       0.92400000      -1.55300000       0.11917702      -0.01479292      -0.36702675
B        1.64100000       0.23600000      -3.03000000      -0.37466252       0.02845455       0.13596368
B        0.69900000      -1.26900000      -3.12900000       0.00751098       0.20606470       0.09780565
B       -1.02800000      -0.82800000      -3.13800000       0.11223418       0.18901190       0.02965927
B        0.16300000       0.19900000      -4.02000000       0.00940206       0.11963594       0.36395371
B        0.50800000       1.59700000      -2.99700000      -0.07861308      -0.39794254      -0.12575406
C       -0.40000000       1.32300000      -1.56800000      -0.06593113       0.12640430      -0.37292555
B        1.36600000      -0.74900000      -1.56900000      -0.17078227       0.27471644       0.07061221
B       -0.27500000      -1.43300000      -1.61500000       0.04271279       0.14803788      -0.04489803
B       -1.39200000      -0.03400000      -1.58800000       0.20768154       0.00778925       0.12481645
B       -1.13600000       0.94700000      -3.05600000       0.31628150      -0.12993774       0.06324312
Co       0.00000000       0.00000000       0.00000000       0.04453404      -0.60780680       0.12098941
H        0.64900000       2.32700000       1.06700000      -0.15675822       0.08116962      -0.06720848
H       -0.81900000       2.55400000       3.41900000      -0.07424937       0.10862726       0.04213154
H       -2.34300000      -0.15400000       3.73300000      -0.03633809      -0.01958938       0.01283237
H       -0.22900000      -2.38100000       3.73600000      -0.02131622      -0.05062498       0.03062971
H        0.31700000       0.26600000       5.20700000      -0.03555511      -0.03528351       0.03716037
H        2.11100000       1.96300000       3.26400000       0.09704641       0.08890766       0.03378691
H        2.42800000       0.45700000       1.07500000       0.02476783      -0.17793262      -0.08426896
H       -2.08100000       1.40400000       1.10000000      -0.17571935       0.09477634      -0.07553612
H       -1.80900000      -1.78700000       1.27700000      -0.04993260      -0.05636793      -0.02661520
H        1.35800000      -2.22400000       1.13100000       0.09641849      -0.12162963      -0.08568062
H        2.55800000      -0.99800000       3.45200000       0.08734693      -0.07405140       0.03698564
H        1.83000000       1.62500000      -1.06900000       0.12259654      -0.11528391       0.06576717
H        2.74500000       0.43400000      -3.41300000       0.11521155      -0.01607165      -0.04137847
H        1.12700000      -2.22100000      -3.70500000      -0.00583827      -0.04118773      -0.01313790
H       -1.85200000      -1.46100000      -3.72100000      -0.03377534      -0.04518111      -0.02652058
H        0.19500000       0.29200000      -5.20500000      -0.01383252      -0.04889545      -0.01522456
H        0.79700000       2.70500000      -3.28300000       0.03152629       0.12895674      -0.03640099
H       -0.67400000       2.26700000      -1.09000000      -0.18780425       0.00646980       0.06512733
H        2.34800000      -1.20100000      -1.08200000       0.11950044      -0.09418698       0.09411457
H       -0.55700000      -2.53100000      -1.24700000      -0.02295837      -0.06272100       0.03737380
H       -2.48700000       0.02700000      -1.13800000      -0.22486022       0.02125376       0.07997417
H       -2.00400000       1.64400000      -3.46200000      -0.11866957       0.05025154      -0.04580528
