1584
Lattice="25.25 0.0 0.0 0.0 25.25 0.0 0.0 0.0 25.25" Properties=species:S:1:pos:R:3:momenta:R:3:forces:R:3 generated=T by=T VMD=T energy=-7705.7685546875 free_energy=-7705.7685546875 stress="0.0049566542729735374 -1.0191928595304489e-05 -3.7299469113349915e-07 -1.0191928595304489e-05 0.005301887169480324 -1.3058073818683624e-05 -3.7299469113349915e-07 -1.3058073818683624e-05 0.0038460742216557264" pbc="T T T"
O        7.11692300       8.92312500      18.70127300       0.48277427       0.38932196      -0.33024021       1.79076850      -1.07050443      -0.58653963
H        6.67814700       9.76226300      18.66836200      -0.17067650       0.10788821       0.04549962      -1.39523733       1.30876017       0.14714706
H        6.53732800       8.15871700      18.82040800      -0.11068800       0.01134934      -0.16270914      -0.66110688      -0.23274460       0.39335954
O        6.09130200      22.67030100      13.11339500       0.22881929       0.51468938      -0.80744443       0.25075620       0.62011772       0.00451225
H        5.89123000      22.42315900      12.18254900      -0.02365453       0.24583673       0.00828091       0.07120753      -0.22905506      -0.40554029
H        5.58584800      22.07079100      13.67871400       0.03716870       0.07427895      -0.07771245      -0.05618072      -0.72230220       0.16769378
O        8.82990600       6.36512700      24.38722400      -0.30070817      -0.33969365       0.67141114      -0.93563598       0.53641295      -0.69611984
H        8.06445500       6.67872800      24.93485600      -0.07586907       0.04940714      -0.10022252       0.52201736       0.09484205       0.03886721
H        9.12397300       5.52061000      24.80482100      -0.02510863      -0.01673499      -0.08600095       0.61262971      -0.20387764       0.06232109
O        8.24659200      13.24039800       7.97208100       0.01086973       0.14665092       0.87773963      -0.63403285       2.49056864       1.00606585
H        8.10820400      14.17784700       7.63499300      -0.25003045       0.37888028       0.07666155       0.15623127      -0.45555344       0.74644566
H        8.37410200      12.81728100       7.13910200       0.10724849       0.01611584      -0.23658071       0.26479810      -1.84266818      -1.79281580
O       17.57267400       1.53891100       7.37725400      -1.23462228       0.75089430       0.30261068      -0.74123287       0.31601954      -2.02038670
H       17.97084200       2.36945500       7.00671100       0.04727181      -0.14710390       0.22142480      -0.23234606      -0.09109899       0.13509209
H       17.96840100       1.44806400       8.23985200      -0.12931701       0.19282885      -0.31158294       0.79756004      -0.13277458       1.88650918
O       21.95883800      22.33645100      20.95722800       0.22477421      -0.17647310       0.88026289      -1.32575142      -0.00300182       0.81625539
H       21.18970100      21.76427300      20.63871400       0.16080082       0.03728703       0.12759428       1.00052357       0.50650626      -0.40359291
H       21.44555500      23.15052200      21.24564600      -0.29641052       0.01591791       0.01009594       0.81188786      -0.17118455      -0.14505281
O       19.86034800      24.06745300      -0.70969100      -0.01914489       0.24650940      -0.15450890      -0.39316770       1.11148822       1.24377489
H       19.07806400      23.46618300      -0.51434300       0.05394259       0.02107640       0.11441197       0.28295794      -0.12313738       0.03448472
H       19.79674300      24.78124200       0.04298700       0.03147039       0.18713197       0.13378166       0.47467431      -1.16247320      -1.12412882
O        2.19527800      18.98194100       4.92844400       0.24018745       0.22752728      -0.66844071       1.16896188       0.27864519      -0.72644573
H        3.17420900      18.87745900       4.57588400      -0.03785728       0.17579462      -0.07391801      -1.53629482       0.31376603       0.17671126
H        2.00141300      19.96038100       4.78664900       0.27645690      -0.23477273       0.07758017       0.49166447      -0.23456351       0.46742344
O        1.85875900      19.32823000      22.14577900       0.12635644      -0.21634527       0.53205102       0.25776985       0.59564471       1.42356777
H        2.76010100      19.66549300      22.41655500      -0.33193354       0.18169289      -0.01739600      -0.66413802      -0.44414541       0.14232560
H        1.97545400      19.19039900      21.20810900       0.22184972       0.02277812       0.14059326       0.23173198      -0.28954172      -1.44866967
O       24.50902200       6.17539000      21.22508400      -0.09470776       0.27792390      -0.18571715      -0.35258228      -1.16526318      -1.36136436
H       23.72746700       5.55272200      21.52084700      -0.05330610       0.18386557       0.06284524      -0.23836483       0.64850259       0.32400769
H       24.40251400       6.06824400      20.21519300      -0.05904551       0.27877810       0.22157597       0.40847844       0.49083465       0.97243470
O        5.94927400       5.58935600      11.78600800      -0.00588690      -1.13823151       0.72255819       1.00148988       0.04300382       0.53040451
H        6.28152300       5.04332000      12.55018000      -0.13134500      -0.13874441      -0.07794873      -0.06770694       0.26317409      -0.14019899
H        6.75577000       6.09707700      11.54282600      -0.15691041      -0.00609171      -0.04579322      -0.01680566      -0.03698063       0.04612955
O        9.95046600      22.39591400       3.38403600      -2.32905603      -0.30426898      -1.44068328       1.05431521      -0.66968662      -0.44208506
H       10.76195700      21.88716500       3.76243300      -0.26284985       0.36538524       0.04686039      -0.73786187       0.31775847      -0.35824400
H       10.17296700      23.33411000       3.10656200       0.05415795      -0.07054690       0.28472345       0.24695475       0.29586834      -0.02178887
O       15.00946400      20.22542800      14.45138200       0.71353589       0.87915298       0.05856282      -0.13345343      -1.43365645       0.74240661
H       14.96151400      21.14174300      14.27486900      -0.03137476       0.10732520       0.13559786      -0.33150730       2.43678498      -0.08623414
H       15.23411800      19.86582200      13.58733000       0.19717968       0.24155193      -0.32499639       0.13421375      -0.96168274      -0.87577349
O       18.39773400      17.50744100       7.19323900      -0.47951022      -0.72422920       0.44153570      -1.15682328       0.99131441       0.75885177
H       18.62196400      17.02017400       6.39686600      -0.20387388      -0.25940152       0.07157833       0.59065700      -0.76942450      -0.42352021
H       19.06467200      17.36883400       7.87736000      -0.08128383       0.16851396       0.11364262       0.57660109      -0.20808703      -0.18714042
O       23.09293000       8.13659300      10.72376900      -0.00975947       0.90379672      -0.25062637      -0.58021551      -0.43637592       0.08823331
H       22.22128100       7.67387300      10.99156000       0.09155634       0.19186434      -0.29747082       1.00603485       0.50718611      -0.39820182
H       23.39001500       7.71925000       9.86273500      -0.15961801       0.16821878      -0.06666670      -0.51503408       0.50157899       0.61044794
O       22.10088500       0.68121200       9.00602200       0.17135206      -0.96733541      -0.22008691       0.12396558       0.01093955      -0.94950235
H       21.37675100       0.41231900       8.35018200      -0.05813054      -0.09788714      -0.07183785       0.41927317       0.13261215       0.26535416
H       22.63245400       1.37774200       8.51065700      -0.12287725      -0.18701843      -0.15406111      -0.53712416      -0.23769401       0.67212170
O        8.13431300      15.82213100      18.71548300      -0.47413366       0.58688655      -0.16451182      -0.40747824      -0.05706671      -1.44668329
H        8.35023300      16.81905900      18.66573700       0.28411813       0.19458361       0.01394349      -0.18185504      -1.04018426       0.18384564
H        7.61744700      15.52967700      17.87486300       0.27790623      -0.06488185      -0.23782768       0.98959488       0.55370766       1.08481431
O        4.56175200      12.55289900      13.86707400       0.15011811      -0.35477797       0.28636260      -0.83475888       0.02059043      -0.39711925
H        3.76827700      12.27592300      13.32332500      -0.25798497       0.10331938       0.34130233       0.71740007       0.35744387       0.16946603
H        4.68566700      13.52461100      13.71105600       0.11521733      -0.22102943      -0.10798656      -0.03320719      -0.31286153       0.03643831
O       10.26771100      13.65748400      21.21776800      -0.52949111       0.60541602      -0.07783808      -1.15015960       1.47951055      -0.24809486
H       10.16676700      14.06661200      20.32054300      -0.00387952      -0.06663940       0.07408207       0.35867348      -0.31557348       0.54029322
H       10.93756600      12.97577200      21.13772000       0.17263435       0.11299436      -0.00401469       0.90619743      -1.05438340      -0.18157806
O        3.53055000       6.92201100      14.82276200       0.07765160      -0.42939396      -0.44466091       0.70913416       0.01183044       0.64693570
H        4.12429100       6.10489600      14.90247400      -0.08229757       0.16087058       0.04321499      -0.30473235       0.03347573       0.24980514
H        3.16473000       6.84503200      13.93332600       0.07565742      -0.05294788      -0.17789733      -0.31694159      -0.41414946      -1.02783525
O       13.72914900      14.33583600      21.73487500       0.53620137       0.57479191       0.47133988      -0.35903123      -1.34445715      -0.54426938
H       13.09626100      13.57617000      21.77407300      -0.05736138      -0.18834083       0.43656692       0.34457549       0.24445750      -0.15043220
H       13.15032600      15.11922900      21.58043900      -0.16355402      -0.32561254       0.12665658      -0.23260081       0.42695415      -0.16721970
O       21.70371100       3.69600100       6.01104400      -0.09856678      -0.14601637      -0.60156898       0.16050468       0.46490404      -0.78117204
H       22.26928100       3.23117100       6.64039600       0.11313578       0.04437259       0.00987616       0.91484451      -0.25777736       0.99526387
H       22.35321200       3.86674700       5.26515800      -0.08050602      -0.03700283      -0.10688172      -0.57645726      -0.12768543      -0.11722191
O       17.33609400       6.52556200      25.63179200      -0.16450603      -0.84273200       0.17645366       1.71460867       0.69799882       0.03689350
H       16.39420700       6.50798600      25.58274500       0.00681853      -0.06650410      -0.33079179      -1.97555625      -0.00747877      -0.02724653
H       17.65494200       5.83720400      24.99951200       0.15329152      -0.13888803       0.08807489       0.02418217      -0.16004311      -0.31155503
O       26.55798300       5.21552800       3.65287500       0.37642583      -0.20844134      -1.00368681      -0.68017149      -0.27267760      -0.50958097
H       27.35144400       4.62158600       3.57039000      -0.01182392       0.32261102      -0.28826583      -0.02194780       0.13856643       0.25078395
H       25.81803900       4.73716600       3.20302700       0.16803764      -0.11074008       0.13272274       0.55712295       0.15244806       0.27915850
O       21.28850000       1.22458600      18.24965900      -0.42326569      -1.48347330       0.02855172      -0.82881814      -1.09804332       1.77330101
H       21.77799000       0.50814800      17.82543600       0.03947010       0.00804452      -0.07923262       0.49325597      -1.06988657      -0.77953279
H       21.38248600       1.99353300      17.72016500      -0.14741074       0.13319885       0.29611355       0.18986692       2.07405996      -0.98583478
O       22.65935900       1.70785000      22.74073800       0.07398892       0.66567050       0.07186289      -0.96372157      -1.24872887      -0.24669634
H       22.83319300       2.05824800      21.82543400      -0.00928818      -0.01690074      -0.03108071      -0.07734628      -0.14446338       0.27420822
H       21.97561600       0.92145600      22.60623900       0.20759181      -0.00019817       0.15798984       0.95286769       0.83659440      -0.02942121
O       10.19991600      12.89711900      -0.14777000       0.61649011       0.59264058      -1.10536848       1.99396825       0.22443470       0.06455688
H       11.26541900      13.17937400      -0.01413900      -0.10578645       0.15145549       0.04782106      -1.79740369      -0.73606211      -0.72054070
H        9.88378600      13.08186700       0.74632600      -0.18766283       0.12830508       0.26859930      -0.28223863       0.28781632       0.58981895
O       12.57208700      17.46075400      24.85023900      -0.67844975       1.19787398       0.15062678      -0.21030214       0.29394409      -0.04204730
H       12.62138100      17.86261400      23.94637700      -0.18436873       0.00511983       0.07773737       0.24717237      -0.54225057       0.37201270
H       13.20131200      16.70873100      24.93827200      -0.28707914       0.05749983       0.19925689      -0.31294262       0.06117854      -0.69641560
O       12.43180800      17.38862200      13.94282800       0.13596240      -0.08661236      -0.29471155       1.61618853      -0.28137335      -0.46167615
H       13.39216500      17.03626100      14.00203200      -0.18972252      -0.02474175       0.05933261      -0.90484452      -0.37416139       0.49102530
H       12.68928700      18.29624000      13.64655300       0.13219865       0.04649088       0.16710059      -0.89703029       0.46045497       0.01446851
O        1.12836200       7.01041300       8.32457900       0.81170933      -1.17886372       0.60113848       0.13284329      -1.19765198      -0.30590045
H        1.77690300       6.25146100       8.57566500       0.10093744       0.11684323      -0.30758767      -0.57011116       0.49355045      -0.04847926
H        1.30588000       7.79037700       8.89055100       0.09931181       0.12952807       0.06652207       0.22612169       0.16510081       0.03316114
O       13.90542500       8.20378200      20.76392000      -0.59453486       0.92433089       0.76920661       1.31467152      -0.27938130       1.24750113
H       13.07876700       8.58147200      21.10842700      -0.04722103       0.08397023      -0.07831224      -0.62116981       0.08796414      -0.41775727
H       13.92506500       8.30070400      19.81451400      -0.05693406      -0.01032612      -0.09841259      -0.20884761       0.14171383      -0.79505259
O        1.47961600      10.36356700      22.02834900      -0.36715840      -0.92285773      -0.42348804      -0.77563912       0.92174488       0.48983207
H        1.10460600      11.34431700      21.93372500       0.34226375      -0.05753312       0.17295711       0.52834451      -1.23672152       0.17468725
H        2.30607300      10.31214200      21.54254200       0.08205011      -0.20568325       0.09658146       0.49137953       0.12097201      -0.49750304
O       19.49617800      23.05975900       4.55442800       0.25894033      -0.23731352       0.41607065      -0.75764775       0.41872054      -0.06734748
H       20.09296200      22.85645900       5.29616000       0.22561442       0.05939534      -0.14761049       0.41307285      -0.41298744       0.44807225
H       18.79015900      23.63936400       4.94687000      -0.02398814       0.08435999       0.06401852       0.30384803      -0.07374664      -0.05296270
O       25.08179100      15.72961200      20.81021500       0.51235918       0.58113171      -0.99728673       1.48195851      -0.16071749      -0.92434555
H       25.18570100      14.80254400      21.12565600      -0.10827341      -0.04390441       0.26404889      -0.26207203      -0.10186910       0.06507945
H       25.77067400      15.79635100      20.02795600      -0.01680629       0.06378079      -0.00010542      -1.69622266       0.16687106       0.97030717
O       11.71865700      20.94833000       4.64707200       0.78512463      -0.20723034      -0.29433118       1.48067665      -3.31691957      -2.39226198
H       12.65725000      20.49238400       4.47391700       0.31477142      -0.06578542      -0.15647088      -1.33628082       0.54546881      -0.55368954
H       11.95996200      21.61245000       5.24948900       0.06433748      -0.05666414       0.08219695       0.36148944       2.65700150       2.58527446
O       14.48830300      20.71897900       0.66603100       0.85767160       0.42272737       0.58333639       0.62304646       0.93919975      -1.75414968
H       14.28311500      21.61066100       1.02563700       0.12381435      -0.11946990      -0.09655836       0.07722749      -0.04199327      -0.04532112
H       14.83455400      20.93196700      -0.28291300      -0.28026441      -0.04340523      -0.13618251      -0.82578254      -0.61558592       1.64638150
O       11.77591300      16.66709900       6.12822600      -0.74341961      -0.12685354       0.50529303      -1.11402202      -0.38048705       0.38580006
H       10.94760300      17.12594600       5.74163300       0.17313831      -0.14446621       0.30893621       1.12117410      -0.20675190       0.58134341
H       11.50897900      16.03687500       6.89780500      -0.16847299      -0.15492429      -0.22837248       0.36230078       0.72373843      -1.08733523
O        8.89691000      11.18022500       3.23599100       0.03924229      -0.69263383       0.27221036      -0.37272921       0.88449335      -0.97719866
H        9.10454800      10.27475600       2.90228900       0.09690404       0.02894136       0.02107021       0.27746955      -0.16820237      -0.05588093
H        8.33220800      11.54353600       2.43823100       0.06898337      -0.02875618      -0.12734448       0.33395413      -0.89650172       1.28200388
O       13.51914100       0.65704400       4.42257400      -0.33071368      -0.74015672       1.29278474      -0.33141339      -0.27605918       1.65760708
H       13.64483900      -0.08336900       3.80102200       0.00972357      -0.40837819      -0.22285603       0.09364203       0.02648219      -0.59941989
H       13.57764200       1.52154600       3.98404400       0.12731278       0.01403428      -0.13210986       0.12892023       0.37008837      -1.07289052
O       23.78651400      14.25958300      23.46233400      -0.48851535      -0.53408136       0.85873550       0.60170060       0.24661118       0.75829631
H       24.38693200      13.89369000      24.14502700       0.24771910       0.18604873       0.10012420       0.20282708       0.37745905       0.10075685
H       23.41288000      13.42487300      23.16226800      -0.10171493      -0.23898803      -0.15679336      -0.78740656      -0.44722590      -0.67147106
O       19.84573700      18.02288200       1.41286300      -0.20177151      -0.68612245      -0.24797235      -0.11967320      -1.75522518      -1.29206467
H       19.92167900      17.11113400       0.89490400      -0.42551411      -0.11706826      -0.12941767      -0.28920293       1.55549431       1.02366495
H       20.21138000      18.68236200       0.77810000       0.06065187      -0.12323737      -0.09792964       0.25745773      -0.08517005       0.51977623
O       -0.79110000       8.72153500      21.76754600       0.27461835       0.18643486       0.79174488      -0.04078904      -0.80097896       0.00246326
H        0.13058300       9.01549000      21.61763000       0.11693370       0.18142377       0.09055000       0.17088678       0.67081416       0.27756962
H       -0.75499100       7.71881700      21.56421100      -0.02583485      -0.30405415       0.11808735      -0.28695628       0.22303599       0.06451817
O       10.26403700       4.34073300      17.90695600       0.50261996      -0.04589083      -0.76374238       1.01661074       0.14552236       0.39144257
H       10.40184200       3.69964200      17.17898800      -0.03897251      -0.13017305       0.20707813      -0.23229896      -0.45396224      -0.84231937
H       11.21937900       4.63023200      18.02771900      -0.06298886      -0.16593902       0.35558081      -0.55400527       0.34994376       0.56599534
O       22.81305900      18.48513000      24.17599700       0.18713879      -1.08334180      -0.60564337       0.54729652      -0.30395332      -0.18822581
H       23.56715200      19.15505200      24.13179600      -0.27955675      -0.05809761      -0.02426573      -0.10790291      -0.44221559      -0.16665043
H       22.08341200      19.01086600      24.59781800       0.27692528       0.03047124      -0.08148666      -0.14224233       0.04354555       0.05994581
O       19.27805700       9.78872300      18.13067600      -0.97516503       0.47627433      -0.62038150       0.58876717      -0.68774045       0.23726855
H       18.86082500      10.65440900      18.34367900       0.10701028       0.00967364      -0.05425301      -0.16020036       0.21197709      -0.29996279
H       19.33083000       9.66808800      17.16359700      -0.24153503      -0.02143328       0.14743913      -0.19768235       0.27016875       0.08489726
O        8.31631100      17.49852000      15.75404300      -0.19346495      -0.04197252       0.27582194       0.34095222       0.11734757       1.07219398
H        8.19962300      17.39872600      14.80232000      -0.09682633      -0.03566251       0.23425862       0.44131193      -0.29874158      -0.70593870
H        9.27003800      17.29239800      16.03002700      -0.10584479      -0.12884125      -0.14800094      -0.70528239       0.11924042      -0.71263230
O       12.55125000       7.77281200       4.23249400      -0.90100219      -0.17676890       0.35593297      -1.13246846       1.96803272      -1.12975168
H       12.53666000       8.71543400       4.58579900      -0.02656477      -0.19574574      -0.13175965       0.16566099      -1.02560031      -0.28243789
H       13.16900600       7.33567500       4.80824000       0.22352848       0.16357406       0.08071238       1.13430166      -0.98086667       1.10753918
O       -0.05201100      19.46571700      12.14040900       0.20924519      -0.12920153       1.12094965      -1.28201401      -2.18606806      -0.32683101
H       -0.03609000      20.34539800      11.79768200       0.14232931       0.29885486      -0.06767546       0.33145988       2.17955780      -0.49436197
H        0.75043200      19.34539000      12.63990000      -0.13048028      -0.17867423      -0.03501972       1.11159658      -0.11169796       0.92662650
O       12.08565300      20.31250000      23.48950800      -0.32195113       0.45401220      -1.30659807       0.47024953       0.12196501      -1.14361846
H       11.23410200      20.50861700      23.02587700      -0.14166821      -0.12068566       0.03795915      -0.04725815      -0.06714953       0.07384846
H       11.83816900      20.04841000      24.37820600      -0.03915893      -0.23089718      -0.01201855      -0.59796888      -0.07930426       0.95210350
O        5.24811100      24.80089600      17.36267300      -0.79876824      -1.00235566       0.26077399      -0.98858368      -0.76119876      -0.47980481
H        4.93103400      23.87098500      17.17865400      -0.02753116      -0.03232687      -0.10671354       0.25402424       0.83552849       0.04044930
H        4.93976000      25.01153400      18.28828600      -0.32652070       0.07799209      -0.09996695       0.16039930      -0.32590544       0.12655127
O        9.94505100      17.00743700       0.22031700       0.29305437       0.16597673       0.08451636       0.94202983       0.21364629       0.23103735
H        9.24461600      17.11330400      -0.45181200       0.29704415       0.02890535       0.01774670      -0.41123667      -0.26363218      -0.25737572
H       10.83527900      17.09087600      -0.23930700      -0.09871175       0.14086777       0.06353137      -0.48722237      -0.03930798       0.21214218
O        8.67411800      14.23996000      23.42105300       1.05321684      -0.13287537       0.34579252      -0.41135964      -0.06435040       1.96771717
H        9.17462700      13.97582100      24.28442200       0.34310310      -0.15079349       0.04075144      -0.19820091      -0.10971177      -1.35865283
H        9.29912600      14.07733100      22.69850700       0.18885781       0.11966007       0.36265107       0.57508433       0.04840798      -0.73114699
O        8.63759700      22.33763700      16.03429000      -0.15495430      -0.08455931       0.36201758       0.13881353      -0.14943954      -0.33583358
H        7.76340500      21.91396900      16.20583500      -0.08803049      -0.03300920       0.26820477      -0.58772689      -0.13478194       0.05625165
H        8.94372100      22.75696900      16.84392400       0.01924978      -0.11307628      -0.16568937       0.05579763       0.01149003       0.48382425
O        8.44309600      16.26311100       7.57915400       0.15865975      -0.94709251      -0.16571303      -0.80778050       0.47308087       0.39759621
H        9.34207200      16.30663700       7.91789100       0.09390528      -0.04710101       0.08013459       0.90173173      -0.25923869       0.11121955
H        7.95765900      16.93331700       8.15178100       0.23532196       0.24033567       0.01740151       0.31224725      -0.40479547      -0.10528422
O       20.06103900      21.80917900      19.15426300      -0.09717846      -0.69982979      -0.65011534      -0.99852788      -0.04979338       0.12865552
H       19.52218600      22.63734800      19.26531800       0.06139836       0.16117202      -0.11180018       0.28824401      -0.51086068       0.07187698
H       19.39631800      21.10088900      19.42628700       0.12250254       0.15463954      -0.13205922       0.18576059       0.25524414      -0.44017515
O       13.03060000       9.79425000       6.27276300      -0.39013917       0.27075439      -0.22271278      -0.43102348      -0.57167184       1.57209384
H       12.96535300       9.40699500       7.23178900      -0.02303746      -0.08446956      -0.08646893      -0.00404168       0.64439195      -1.35345244
H       13.84000100      10.33722900       6.32110800       0.24799259      -0.17441916       0.01962575       0.10164388       0.31397122      -0.38595471
O       19.39839200      15.66407900       5.37240200       0.51306058      -0.73233827       0.11808613      -1.05390012      -0.49233007      -0.53035408
H       19.09454000      14.82742500       4.88749800       0.06499464       0.31799131      -0.24936967       0.54391253       0.59385043      -0.26648855
H       19.78207600      16.32282400       4.73770000      -0.02990282       0.02257609      -0.05774136       0.14183912       0.04240386      -0.35083973
O        8.42845200      24.43846700      19.30313500       0.40884724      -0.45121846      -0.21509150      -0.17840570      -0.42659742       0.34333307
H        7.63147300      23.86311500      19.48693300      -0.09070996       0.17637900      -0.08908789       0.57911938       0.34042519      -0.14281477
H        8.14782400      25.13092000      18.66845100       0.33639357       0.15546035      -0.02369656      -0.49148938       0.08638567      -0.22584856
O        1.40970500       1.43565500       0.27493800      -1.34192107      -0.15996133      -0.08037267      -1.03709042       0.77959698      -0.70232046
H        0.84475100       0.87058300       0.88416000       0.21032067       0.10181771      -0.23692871       0.49920067      -0.28725258       0.32123306
H        0.75846400       2.09807800      -0.12339100      -0.18900105       0.03503207       0.06533866       0.61531961      -0.53154522      -0.00073364
O       12.59289500       7.73530800      16.68834500      -0.69193154      -0.03452910       0.55756366       0.05934418       0.66232264       0.37500265
H       12.12465000       8.51826500      17.10159100      -0.05615522       0.09219391      -0.09724458       0.00735678      -0.00534874      -0.34866539
H       12.49882300       7.01186700      17.35759500      -0.00810466       0.29836609       0.18174803       0.02118918      -0.67810220       0.30747280
O       14.59306900      12.88340100      13.64085900       0.40834455       0.90814128      -1.75305684       1.31476378      -0.61977023      -0.41193241
H       15.55191900      13.16883500      13.41091100       0.08638460      -0.03352153       0.03530931      -1.51199567       0.39128754       0.32480928
H       14.75355400      11.84861000      13.72309000       0.02620462       0.05553486       0.06772329      -0.39377454       0.93324447       0.09799796
O       22.52099600      17.78261900      21.46746400      -0.05343314       0.31674942      -0.46723885       1.15306222      -1.38449156       0.09557185
H       23.37792400      17.24218400      21.35759400      -0.02246932      -0.25195974      -0.08093506      -1.28732681       0.80719543       0.31682965
H       22.37171000      17.87854800      22.45762100      -0.03053341      -0.01296913      -0.16972489       0.46093833       0.29695621      -0.28172189
O       16.38932000      23.53168900       8.24309300       0.63720653      -0.00182572      -1.21243669       0.08898526      -0.35427061      -3.44277263
H       16.79101800      23.97416100       7.35190900       0.22164623       0.09597736       0.14104063      -0.56329095      -0.59886748       2.21768117
H       15.90061400      22.82468400       7.68029300      -0.13164591      -0.12265258       0.26355379       0.08954070       0.59302121       1.43537569